<?xml version="1.0" encoding="UTF-8"?>

<!-- generated on Wed 01 Feb 2017 14:43:33 GMT by SUMO gui Version 0.28.0
<?xml version="1.0" encoding="UTF-8"?>

<configuration xmlns:xsi="http://www.w3.org/2001/XMLSchema-instance" xsi:noNamespaceSchemaLocation="http://sumo.dlr.de/xsd/sumo-gui.exeConfiguration.xsd">

    <input>
        <net-file value="./models/simpleT/simpleT.net.xml"/>
        <route-files value="./models/simpleT/simpleT.rou.xml"/>
        <additional-files value="./models/simpleT/simpleT.det.xml"/>
    </input>

    <output>
        <queue-output value="./models/simpleT/../../results/queuedata010_000.xml"/>
        <tripinfo-output value="./models/simpleT/../../results/tripinfo010_000.xml"/>
    </output>

    <time>
        <begin value="0"/>
        <step-length value="0.01"/>
    </time>

    <processing>
        <time-to-teleport value="-1"/>
    </processing>

    <report>
        <error-log value="./models/simpleT/logfile.txt"/>
        <no-step-log value="true"/>
    </report>

    <traci_server>
        <remote-port value="1351"/>
    </traci_server>

</configuration>
-->

<detector xmlns:xsi="http://www.w3.org/2001/XMLSchema-instance" xsi:noNamespaceSchemaLocation="http://sumo.dlr.de/xsd/det_e1_file.xsd">
</detector>
